MODEL 1
REMARK VINA RESULT:    -7.572      0.000      0.000
REMARK INTER + INTRA:         -10.074
REMARK INTER:                  -9.563
REMARK INTRA:                  -0.511
REMARK UNBOUND:                -0.511
REMARK SMILES CC(C)Cc1ccc(C(C)C(=O)O)cc1
REMARK SMILES IDX 5 1 6 2 7 3 8 4 14 5 15 6 4 7 2 8 1 9 3 10 9 11 10 12 11 13
REMARK SMILES IDX 12 14 13 15
REMARK H PARENT 13 16
ROOT
ATOM      1  C   UNL     1      28.398  21.605  17.338  1.00  0.00    -0.048 A 
ATOM      2  C   UNL     1      27.006  21.542  17.213  1.00  0.00    +0.004 A 
ATOM      3  C   UNL     1      26.339  22.342  16.281  1.00  0.00    +0.005 A 
ATOM      4  C   UNL     1      27.048  23.224  15.453  1.00  0.00    -0.034 A 
ATOM      5  C   UNL     1      28.443  23.287  15.585  1.00  0.00    +0.005 A 
ATOM      6  C   UNL     1      29.110  22.486  16.517  1.00  0.00    +0.004 A 
ENDROOT
BRANCH   1   7
ATOM      7  C   UNL     1      29.120  20.739  18.342  1.00  0.00    +0.038 C 
BRANCH   7   8
ATOM      8  C   UNL     1      29.095  21.298  19.779  1.00  0.00    -0.013 C 
ATOM      9  C   UNL     1      28.849  20.161  20.773  1.00  0.00    +0.008 C 
ATOM     10  C   UNL     1      30.396  22.022  20.135  1.00  0.00    +0.008 C 
ENDBRANCH   7   8
ENDBRANCH   1   7
BRANCH   4  11
ATOM     11  C   UNL     1      26.346  24.096  14.424  1.00  0.00    +0.126 C 
ATOM     12  C   UNL     1      26.984  25.481  14.320  1.00  0.00    +0.025 C 
BRANCH  11  13
ATOM     13  C   UNL     1      26.283  23.468  13.042  1.00  0.00    +0.310 C 
ATOM     14  O   UNL     1      25.666  22.476  12.689  1.00  0.00    -0.252 OA
BRANCH  13  15
ATOM     15  O   UNL     1      27.068  24.115  12.151  1.00  0.00    -0.481 OA
ATOM     16  H   UNL     1      27.047  23.534  11.362  1.00  0.00    +0.296 HD
ENDBRANCH  13  15
ENDBRANCH  11  13
ENDBRANCH   4  11
TORSDOF 5
ENDMDL
MODEL 2
REMARK VINA RESULT:    -6.905      1.739      2.089
REMARK INTER + INTRA:          -9.232
REMARK INTER:                  -8.711
REMARK INTRA:                  -0.521
REMARK UNBOUND:                -0.511
REMARK SMILES CC(C)Cc1ccc(C(C)C(=O)O)cc1
REMARK SMILES IDX 5 1 6 2 7 3 8 4 14 5 15 6 4 7 2 8 1 9 3 10 9 11 10 12 11 13
REMARK SMILES IDX 12 14 13 15
REMARK H PARENT 13 16
ROOT
ATOM      1  C   UNL     1      27.952  21.654  16.989  1.00  0.00    -0.048 A 
ATOM      2  C   UNL     1      26.655  21.832  16.497  1.00  0.00    +0.004 A 
ATOM      3  C   UNL     1      26.393  22.787  15.511  1.00  0.00    +0.005 A 
ATOM      4  C   UNL     1      27.421  23.588  14.995  1.00  0.00    -0.034 A 
ATOM      5  C   UNL     1      28.720  23.409  15.494  1.00  0.00    +0.005 A 
ATOM      6  C   UNL     1      28.982  22.453  16.479  1.00  0.00    +0.004 A 
ENDROOT
BRANCH   1   7
ATOM      7  C   UNL     1      28.237  20.620  18.052  1.00  0.00    +0.038 C 
BRANCH   7   8
ATOM      8  C   UNL     1      28.814  21.209  19.354  1.00  0.00    -0.013 C 
ATOM      9  C   UNL     1      27.816  21.014  20.498  1.00  0.00    +0.008 C 
ATOM     10  C   UNL     1      30.156  20.572  19.726  1.00  0.00    +0.008 C 
ENDBRANCH   7   8
ENDBRANCH   1   7
BRANCH   4  11
ATOM     11  C   UNL     1      27.163  24.626  13.913  1.00  0.00    +0.126 C 
ATOM     12  C   UNL     1      25.808  24.416  13.235  1.00  0.00    +0.025 C 
BRANCH  11  13
ATOM     13  C   UNL     1      27.257  26.056  14.414  1.00  0.00    +0.310 C 
ATOM     14  O   UNL     1      27.956  26.962  13.989  1.00  0.00    -0.252 OA
BRANCH  13  15
ATOM     15  O   UNL     1      26.474  26.272  15.495  1.00  0.00    -0.481 OA
ATOM     16  H   UNL     1      27.104  26.247  16.245  1.00  0.00    +0.296 HD
ENDBRANCH  13  15
ENDBRANCH  11  13
ENDBRANCH   4  11
TORSDOF 5
ENDMDL
MODEL 3
REMARK VINA RESULT:    -6.850      1.531      2.364
REMARK INTER + INTRA:          -9.162
REMARK INTER:                  -8.854
REMARK INTRA:                  -0.308
REMARK UNBOUND:                -0.511
REMARK SMILES CC(C)Cc1ccc(C(C)C(=O)O)cc1
REMARK SMILES IDX 5 1 6 2 7 3 8 4 14 5 15 6 4 7 2 8 1 9 3 10 9 11 10 12 11 13
REMARK SMILES IDX 12 14 13 15
REMARK H PARENT 13 16
ROOT
ATOM      1  C   UNL     1      26.300  21.834  16.585  1.00  0.00    -0.048 A 
ATOM      2  C   UNL     1      25.218  21.354  15.839  1.00  0.00    +0.004 A 
ATOM      3  C   UNL     1      24.989  21.815  14.540  1.00  0.00    +0.005 A 
ATOM      4  C   UNL     1      25.834  22.769  13.956  1.00  0.00    -0.034 A 
ATOM      5  C   UNL     1      26.916  23.250  14.708  1.00  0.00    +0.005 A 
ATOM      6  C   UNL     1      27.146  22.788  16.008  1.00  0.00    +0.004 A 
ENDROOT
BRANCH   1   7
ATOM      7  C   UNL     1      26.551  21.335  17.987  1.00  0.00    +0.038 C 
BRANCH   7   8
ATOM      8  C   UNL     1      28.014  21.484  18.449  1.00  0.00    -0.013 C 
ATOM      9  C   UNL     1      28.109  21.235  19.956  1.00  0.00    +0.008 C 
ATOM     10  C   UNL     1      28.950  20.527  17.708  1.00  0.00    +0.008 C 
ENDBRANCH   7   8
ENDBRANCH   1   7
BRANCH   4  11
ATOM     11  C   UNL     1      25.612  23.277  12.540  1.00  0.00    +0.126 C 
ATOM     12  C   UNL     1      24.126  23.438  12.220  1.00  0.00    +0.025 C 
BRANCH  11  13
ATOM     13  C   UNL     1      26.332  24.581  12.246  1.00  0.00    +0.310 C 
ATOM     14  O   UNL     1      26.040  25.707  12.616  1.00  0.00    -0.252 OA
BRANCH  13  15
ATOM     15  O   UNL     1      27.395  24.405  11.429  1.00  0.00    -0.481 OA
ATOM     16  H   UNL     1      27.121  23.664  10.849  1.00  0.00    +0.296 HD
ENDBRANCH  13  15
ENDBRANCH  11  13
ENDBRANCH   4  11
TORSDOF 5
ENDMDL
MODEL 4
REMARK VINA RESULT:    -6.828      2.963      6.372
REMARK INTER + INTRA:          -9.136
REMARK INTER:                  -8.690
REMARK INTRA:                  -0.445
REMARK UNBOUND:                -0.511
REMARK SMILES CC(C)Cc1ccc(C(C)C(=O)O)cc1
REMARK SMILES IDX 5 1 6 2 7 3 8 4 14 5 15 6 4 7 2 8 1 9 3 10 9 11 10 12 11 13
REMARK SMILES IDX 12 14 13 15
REMARK H PARENT 13 16
ROOT
ATOM      1  C   UNL     1      26.397  23.488  14.417  1.00  0.00    -0.048 A 
ATOM      2  C   UNL     1      27.691  23.780  14.859  1.00  0.00    +0.004 A 
ATOM      3  C   UNL     1      28.278  23.035  15.885  1.00  0.00    +0.005 A 
ATOM      4  C   UNL     1      27.584  21.980  16.495  1.00  0.00    -0.034 A 
ATOM      5  C   UNL     1      26.284  21.693  16.051  1.00  0.00    +0.005 A 
ATOM      6  C   UNL     1      25.698  22.439  15.024  1.00  0.00    +0.004 A 
ENDROOT
BRANCH   1   7
ATOM      7  C   UNL     1      25.764  24.291  13.306  1.00  0.00    +0.038 C 
BRANCH   7   8
ATOM      8  C   UNL     1      25.494  23.478  12.025  1.00  0.00    -0.013 C 
ATOM      9  C   UNL     1      23.993  23.220  11.881  1.00  0.00    +0.008 C 
ATOM     10  C   UNL     1      26.019  24.188  10.775  1.00  0.00    +0.008 C 
ENDBRANCH   7   8
ENDBRANCH   1   7
BRANCH   4  11
ATOM     11  C   UNL     1      28.205  21.147  17.605  1.00  0.00    +0.126 C 
ATOM     12  C   UNL     1      29.316  21.905  18.332  1.00  0.00    +0.025 C 
BRANCH  11  13
ATOM     13  C   UNL     1      27.194  20.644  18.621  1.00  0.00    +0.310 C 
ATOM     14  O   UNL     1      26.632  19.561  18.656  1.00  0.00    -0.252 OA
BRANCH  13  15
ATOM     15  O   UNL     1      26.891  21.580  19.548  1.00  0.00    -0.481 OA
ATOM     16  H   UNL     1      27.767  21.874  19.874  1.00  0.00    +0.296 HD
ENDBRANCH  13  15
ENDBRANCH  11  13
ENDBRANCH   4  11
TORSDOF 5
ENDMDL
MODEL 5
REMARK VINA RESULT:    -6.684      3.405      4.406
REMARK INTER + INTRA:          -8.953
REMARK INTER:                  -8.543
REMARK INTRA:                  -0.410
REMARK UNBOUND:                -0.511
REMARK SMILES CC(C)Cc1ccc(C(C)C(=O)O)cc1
REMARK SMILES IDX 5 1 6 2 7 3 8 4 14 5 15 6 4 7 2 8 1 9 3 10 9 11 10 12 11 13
REMARK SMILES IDX 12 14 13 15
REMARK H PARENT 13 16
ROOT
ATOM      1  C   UNL     1      25.135  22.023  16.319  1.00  0.00    -0.048 A 
ATOM      2  C   UNL     1      25.159  21.638  14.974  1.00  0.00    +0.004 A 
ATOM      3  C   UNL     1      25.778  22.443  14.014  1.00  0.00    +0.005 A 
ATOM      4  C   UNL     1      26.387  23.653  14.375  1.00  0.00    -0.034 A 
ATOM      5  C   UNL     1      26.358  24.037  15.724  1.00  0.00    +0.005 A 
ATOM      6  C   UNL     1      25.739  23.231  16.685  1.00  0.00    +0.004 A 
ENDROOT
BRANCH   1   7
ATOM      7  C   UNL     1      24.470  21.153  17.357  1.00  0.00    +0.038 C 
BRANCH   7   8
ATOM      8  C   UNL     1      22.996  20.828  17.046  1.00  0.00    -0.013 C 
ATOM      9  C   UNL     1      22.335  20.191  18.271  1.00  0.00    +0.008 C 
ATOM     10  C   UNL     1      22.211  22.073  16.624  1.00  0.00    +0.008 C 
ENDBRANCH   7   8
ENDBRANCH   1   7
BRANCH   4  11
ATOM     11  C   UNL     1      27.077  24.541  13.351  1.00  0.00    +0.126 C 
ATOM     12  C   UNL     1      26.503  24.342  11.948  1.00  0.00    +0.025 C 
BRANCH  11  13
ATOM     13  C   UNL     1      27.036  26.017  13.705  1.00  0.00    +0.310 C 
ATOM     14  O   UNL     1      27.920  26.703  14.192  1.00  0.00    -0.252 OA
BRANCH  13  15
ATOM     15  O   UNL     1      25.824  26.566  13.465  1.00  0.00    -0.481 OA
ATOM     16  H   UNL     1      26.032  27.356  12.922  1.00  0.00    +0.296 HD
ENDBRANCH  13  15
ENDBRANCH  11  13
ENDBRANCH   4  11
TORSDOF 5
ENDMDL
MODEL 6
REMARK VINA RESULT:    -6.595      3.478      6.477
REMARK INTER + INTRA:          -8.840
REMARK INTER:                  -8.700
REMARK INTRA:                  -0.141
REMARK UNBOUND:                -0.511
REMARK SMILES CC(C)Cc1ccc(C(C)C(=O)O)cc1
REMARK SMILES IDX 5 1 6 2 7 3 8 4 14 5 15 6 4 7 2 8 1 9 3 10 9 11 10 12 11 13
REMARK SMILES IDX 12 14 13 15
REMARK H PARENT 13 16
ROOT
ATOM      1  C   UNL     1      26.003  23.402  13.949  1.00  0.00    -0.048 A 
ATOM      2  C   UNL     1      25.472  22.108  13.938  1.00  0.00    +0.004 A 
ATOM      3  C   UNL     1      25.320  21.391  15.128  1.00  0.00    +0.005 A 
ATOM      4  C   UNL     1      25.697  21.950  16.357  1.00  0.00    -0.034 A 
ATOM      5  C   UNL     1      26.233  23.247  16.363  1.00  0.00    +0.005 A 
ATOM      6  C   UNL     1      26.384  23.964  15.172  1.00  0.00    +0.004 A 
ENDROOT
BRANCH   1   7
ATOM      7  C   UNL     1      26.165  24.178  12.665  1.00  0.00    +0.038 C 
BRANCH   7   8
ATOM      8  C   UNL     1      25.492  23.515  11.447  1.00  0.00    -0.013 C 
ATOM      9  C   UNL     1      23.971  23.543  11.615  1.00  0.00    +0.008 C 
ATOM     10  C   UNL     1      25.879  24.201  10.134  1.00  0.00    +0.008 C 
ENDBRANCH   7   8
ENDBRANCH   1   7
BRANCH   4  11
ATOM     11  C   UNL     1      25.531  21.194  17.666  1.00  0.00    +0.126 C 
ATOM     12  C   UNL     1      24.071  20.821  17.926  1.00  0.00    +0.025 C 
BRANCH  11  13
ATOM     13  C   UNL     1      26.392  19.947  17.758  1.00  0.00    +0.310 C 
ATOM     14  O   UNL     1      26.072  18.789  17.540  1.00  0.00    -0.252 OA
BRANCH  13  15
ATOM     15  O   UNL     1      27.646  20.221  18.183  1.00  0.00    -0.481 OA
ATOM     16  H   UNL     1      27.701  21.198  18.125  1.00  0.00    +0.296 HD
ENDBRANCH  13  15
ENDBRANCH  11  13
ENDBRANCH   4  11
TORSDOF 5
ENDMDL
MODEL 7
REMARK VINA RESULT:    -6.515      3.987      6.237
REMARK INTER + INTRA:          -8.740
REMARK INTER:                  -8.670
REMARK INTRA:                  -0.070
REMARK UNBOUND:                -0.511
REMARK SMILES CC(C)Cc1ccc(C(C)C(=O)O)cc1
REMARK SMILES IDX 5 1 6 2 7 3 8 4 14 5 15 6 4 7 2 8 1 9 3 10 9 11 10 12 11 13
REMARK SMILES IDX 12 14 13 15
REMARK H PARENT 13 16
ROOT
ATOM      1  C   UNL     1      26.186  23.146  14.487  1.00  0.00    -0.048 A 
ATOM      2  C   UNL     1      26.334  23.343  15.864  1.00  0.00    +0.004 A 
ATOM      3  C   UNL     1      25.366  22.877  16.758  1.00  0.00    +0.005 A 
ATOM      4  C   UNL     1      24.226  22.204  16.296  1.00  0.00    -0.034 A 
ATOM      5  C   UNL     1      24.080  22.012  14.914  1.00  0.00    +0.005 A 
ATOM      6  C   UNL     1      25.049  22.478  14.020  1.00  0.00    +0.004 A 
ENDROOT
BRANCH   1   7
ATOM      7  C   UNL     1      27.233  23.647  13.521  1.00  0.00    +0.038 C 
BRANCH   7   8
ATOM      8  C   UNL     1      26.771  24.844  12.667  1.00  0.00    -0.013 C 
ATOM      9  C   UNL     1      25.942  24.346  11.481  1.00  0.00    +0.008 C 
ATOM     10  C   UNL     1      25.952  25.848  13.483  1.00  0.00    +0.008 C 
ENDBRANCH   7   8
ENDBRANCH   1   7
BRANCH   4  11
ATOM     11  C   UNL     1      23.165  21.677  17.249  1.00  0.00    +0.126 C 
ATOM     12  C   UNL     1      21.767  21.739  16.634  1.00  0.00    +0.025 C 
BRANCH  11  13
ATOM     13  C   UNL     1      23.437  20.265  17.735  1.00  0.00    +0.310 C 
ATOM     14  O   UNL     1      22.635  19.429  18.121  1.00  0.00    -0.252 OA
BRANCH  13  15
ATOM     15  O   UNL     1      24.758  19.979  17.761  1.00  0.00    -0.481 OA
ATOM     16  H   UNL     1      24.809  19.171  18.315  1.00  0.00    +0.296 HD
ENDBRANCH  13  15
ENDBRANCH  11  13
ENDBRANCH   4  11
TORSDOF 5
ENDMDL
MODEL 8
REMARK VINA RESULT:    -6.277      4.172      6.142
REMARK INTER + INTRA:          -8.439
REMARK INTER:                  -8.138
REMARK INTRA:                  -0.301
REMARK UNBOUND:                -0.511
REMARK SMILES CC(C)Cc1ccc(C(C)C(=O)O)cc1
REMARK SMILES IDX 5 1 6 2 7 3 8 4 14 5 15 6 4 7 2 8 1 9 3 10 9 11 10 12 11 13
REMARK SMILES IDX 12 14 13 15
REMARK H PARENT 13 16
ROOT
ATOM      1  C   UNL     1      22.424  21.134  17.289  1.00  0.00    -0.048 A 
ATOM      2  C   UNL     1      22.381  22.066  16.247  1.00  0.00    +0.004 A 
ATOM      3  C   UNL     1      23.559  22.615  15.734  1.00  0.00    +0.005 A 
ATOM      4  C   UNL     1      24.808  22.247  16.253  1.00  0.00    -0.034 A 
ATOM      5  C   UNL     1      24.847  21.315  17.300  1.00  0.00    +0.005 A 
ATOM      6  C   UNL     1      23.668  20.765  17.812  1.00  0.00    +0.004 A 
ENDROOT
BRANCH   1   7
ATOM      7  C   UNL     1      21.152  20.537  17.842  1.00  0.00    +0.038 C 
BRANCH   7   8
ATOM      8  C   UNL     1      19.873  21.044  17.147  1.00  0.00    -0.013 C 
ATOM      9  C   UNL     1      19.195  19.891  16.403  1.00  0.00    +0.008 C 
ATOM     10  C   UNL     1      18.889  21.667  18.141  1.00  0.00    +0.008 C 
ENDBRANCH   7   8
ENDBRANCH   1   7
BRANCH   4  11
ATOM     11  C   UNL     1      26.105  22.822  15.704  1.00  0.00    +0.126 C 
ATOM     12  C   UNL     1      27.331  22.184  16.356  1.00  0.00    +0.025 C 
BRANCH  11  13
ATOM     13  C   UNL     1      26.225  22.710  14.194  1.00  0.00    +0.310 C 
ATOM     14  O   UNL     1      26.716  23.509  13.413  1.00  0.00    -0.252 OA
BRANCH  13  15
ATOM     15  O   UNL     1      25.654  21.580  13.719  1.00  0.00    -0.481 OA
ATOM     16  H   UNL     1      24.738  21.621  14.065  1.00  0.00    +0.296 HD
ENDBRANCH  13  15
ENDBRANCH  11  13
ENDBRANCH   4  11
TORSDOF 5
ENDMDL
MODEL 9
REMARK VINA RESULT:    -5.999      4.040      5.796
REMARK INTER + INTRA:          -8.087
REMARK INTER:                  -7.628
REMARK INTRA:                  -0.460
REMARK UNBOUND:                -0.511
REMARK SMILES CC(C)Cc1ccc(C(C)C(=O)O)cc1
REMARK SMILES IDX 5 1 6 2 7 3 8 4 14 5 15 6 4 7 2 8 1 9 3 10 9 11 10 12 11 13
REMARK SMILES IDX 12 14 13 15
REMARK H PARENT 13 16
ROOT
ATOM      1  C   UNL     1      25.761  22.521  15.546  1.00  0.00    -0.048 A 
ATOM      2  C   UNL     1      25.671  22.307  16.925  1.00  0.00    +0.004 A 
ATOM      3  C   UNL     1      24.448  21.983  17.517  1.00  0.00    +0.005 A 
ATOM      4  C   UNL     1      23.284  21.867  16.744  1.00  0.00    -0.034 A 
ATOM      5  C   UNL     1      23.377  22.086  15.362  1.00  0.00    +0.005 A 
ATOM      6  C   UNL     1      24.602  22.410  14.770  1.00  0.00    +0.004 A 
ENDROOT
BRANCH   1   7
ATOM      7  C   UNL     1      27.083  22.869  14.905  1.00  0.00    +0.038 C 
BRANCH   7   8
ATOM      8  C   UNL     1      27.786  24.082  15.545  1.00  0.00    -0.013 C 
ATOM      9  C   UNL     1      29.295  23.832  15.611  1.00  0.00    +0.008 C 
ATOM     10  C   UNL     1      27.511  25.376  14.774  1.00  0.00    +0.008 C 
ENDBRANCH   7   8
ENDBRANCH   1   7
BRANCH   4  11
ATOM     11  C   UNL     1      21.943  21.504  17.364  1.00  0.00    +0.126 C 
ATOM     12  C   UNL     1      20.772  22.007  16.520  1.00  0.00    +0.025 C 
BRANCH  11  13
ATOM     13  C   UNL     1      21.777  20.015  17.615  1.00  0.00    +0.310 C 
ATOM     14  O   UNL     1      22.551  19.250  18.167  1.00  0.00    -0.252 OA
BRANCH  13  15
ATOM     15  O   UNL     1      20.624  19.535  17.096  1.00  0.00    -0.481 OA
ATOM     16  H   UNL     1      20.849  18.613  16.849  1.00  0.00    +0.296 HD
ENDBRANCH  13  15
ENDBRANCH  11  13
ENDBRANCH   4  11
TORSDOF 5
ENDMDL
